 Gaussian 16, Revision A.03,
 Gaussian 16:  EM64L-G16RevA.03 25-Dec-2016

 ----------------------------------------------------------------------
 #irc=(noeigen,calcfc,LQA,maxpoints=300,stepsize=10) UB3LYP/SVP em=GD3B
 J
 ----------------------------------------------------------------------

 -----------------
 irc-293_2-irc.gjf
 -----------------
 Symbolic Z-matrix:
 Charge =  0 Multiplicity = 1

 SCF Done:  E(UB3LYP) =  -535.650933449     A.U. after   20 cycles
 SCF Done:  E(UB3LYP) =  -535.655202558     A.U. after   16 cycles
 SCF Done:  E(UB3LYP) =  -535.660471526     A.U. after   18 cycles
 SCF Done:  E(UB3LYP) =  -535.665494897     A.U. after   18 cycles
 SCF Done:  E(UB3LYP) =  -535.670386140     A.U. after   16 cycles
 SCF Done:  E(UB3LYP) =  -535.675199204     A.U. after   19 cycles
 SCF Done:  E(UB3LYP) =  -535.679988744     A.U. after   15 cycles
 SCF Done:  E(UB3LYP) =  -535.684794346     A.U. after   17 cycles
 SCF Done:  E(UB3LYP) =  -535.689641672     A.U. after   16 cycles
 SCF Done:  E(UB3LYP) =  -535.694544029     A.U. after   16 cycles
 SCF Done:  E(UB3LYP) =  -535.729062750     A.U. after   12 cycles
 SCF Done:  E(UB3LYP) =  -535.733912009     A.U. after   12 cycles
 SCF Done:  E(UB3LYP) =  -535.738606985     A.U. after   12 cycles
 SCF Done:  E(UB3LYP) =  -535.743087306     A.U. after   12 cycles
 SCF Done:  E(UB3LYP) =  -535.747275942     A.U. after   12 cycles
 SCF Done:  E(UB3LYP) =  -535.751084862     A.U. after   11 cycles
 SCF Done:  E(UB3LYP) =  -535.754404840     A.U. after   11 cycles
 SCF Done:  E(UB3LYP) =  -535.757122212     A.U. after   11 cycles
 SCF Done:  E(UB3LYP) =  -535.759070232     A.U. after   11 cycles
 SCF Done:  E(UB3LYP) =  -535.760059027     A.U. after   11 cycles

                          Input orientation:
 ---------------------------------------------------------------------
 Center     Atomic      Atomic             Coordinates (Angstroms)
 Number     Number       Type             X           Y           Z
 ---------------------------------------------------------------------
      1          8           0       -0.456280    0.108944    1.064755
      2         17           0        0.207426   -0.033562   -0.531838
      3          1           0        0.044344   -0.564487    1.554942
 ---------------------------------------------------------------------

 Alpha  occ. eigenvalues -- -101.54027 -19.19723  -9.49218  -7.26550  -7.24928
 Alpha  occ. eigenvalues --   -7.24892  -1.04268  -0.79156  -0.52018  -0.43139
 Alpha  occ. eigenvalues --   -0.39644  -0.31420  -0.28022
 Alpha virt. eigenvalues --   -0.07479   0.06040   0.45604   0.54991   0.69094
 Alpha virt. eigenvalues --    0.69727   0.71401   0.76047   0.76198   0.84019
 Alpha virt. eigenvalues --    0.84608   0.94472   0.99920   1.03457   1.11437

  Beta  occ. eigenvalues -- -101.54027 -19.19723  -9.49218  -7.26550  -7.24928
  Beta  occ. eigenvalues --   -7.24892  -1.04268  -0.79156  -0.52018  -0.43139
  Beta  occ. eigenvalues --   -0.39644  -0.31420  -0.28022
  Beta virt. eigenvalues --   -0.07479   0.06040   0.45604   0.54991   0.69094
  Beta virt. eigenvalues --    0.69727   0.71401   0.76047   0.76198   0.84019
  Beta virt. eigenvalues --    0.84608   0.94472   0.99920   1.03457   1.11437

 Mulliken charges and spin densities:
               1          2
     1  O   -0.300012   0.000000
     2  Cl   0.089319   0.000000
     3  H    0.210693  -0.000000
 Sum of Mulliken charges =  -0.00000   0.00000

 Dipole moment (field-independent basis, Debye):
    X=              0.9950    Y=             -1.2082    Z=              0.5842  Tot=              1.6707
 Quadrupole moment (field-independent basis, Debye-Ang):
   XX=            -18.7002   YY=            -17.7788   ZZ=            -14.9056
   XY=             -0.1485   XZ=              0.7547   YZ=             -2.0018

  Exact polarizability:   0.000   0.000   0.000   0.000   0.000   0.000
 Approx polarizability:  14.997  -2.291  12.438  -7.879   0.169  33.678

 Normal termination of Gaussian 16 at Thu Mar  6 18:23:03 2025.
