   * xtb version 6.6.1 (8d0f1dd) compiled by 'stahn@M-Bot' on 2023-08-01
          program call               : xtb 499.xyz --input 499.inp --opt

   ID    Z sym.   atoms
    1    8 O      1, 4
    2   17 Cl     2
    3    1 H      3, 5

          :  Hamiltonian                  GFN2-xTB          :
 * total energy  :   -13.5307440 Eh     change       -0.2789715E-09 Eh
 * total energy  :   -13.5382710 Eh     change       -0.7527075E-02 Eh
 * total energy  :   -13.5456311 Eh     change       -0.7360118E-02 Eh
 * total energy  :   -13.5537557 Eh     change       -0.8124594E-02 Eh
 * total energy  :   -13.5587117 Eh     change       -0.4955962E-02 Eh
 * total energy  :   -13.5434822 Eh     change        0.1522946E-01 Eh
 * total energy  :   -13.5614782 Eh     change       -0.1799591E-01 Eh
 * total energy  :   -13.5601341 Eh     change        0.1344003E-02 Eh
 * total energy  :   -13.5690924 Eh     change       -0.8958211E-02 Eh
 * total energy  :   -13.5711855 Eh     change       -0.2093130E-02 Eh
 * total energy  :   -13.5838411 Eh     change       -0.2193775E-04 Eh
 * total energy  :   -13.5838716 Eh     change       -0.3052853E-04 Eh
 * total energy  :   -13.5839019 Eh     change       -0.3022503E-04 Eh
 * total energy  :   -13.5839354 Eh     change       -0.3349395E-04 Eh
 * total energy  :   -13.5839460 Eh     change       -0.1066791E-04 Eh
 * total energy  :   -13.5839577 Eh     change       -0.1165884E-04 Eh
 * total energy  :   -13.5839638 Eh     change       -0.6147202E-05 Eh
 * total energy  :   -13.5839699 Eh     change       -0.6053247E-05 Eh
 * total energy  :   -13.5839746 Eh     change       -0.4761517E-05 Eh
   *** GEOMETRY OPTIMIZATION CONVERGED AFTER 48 ITERATIONS ***

 final structure:
================
5
 xtb: 6.6.1 (8d0f1dd)
O           -1.09622515650587        6.06376586874148        0.45291859303805
Cl          -0.60090136420945        7.12145264311896       -0.59105932106092
H           -1.54356222623119        6.45557186489729        2.07438460311867
O           -1.76508243002603        6.60674272143055        3.01533922694932
H           -1.81238419112789        5.74238417158126        3.43140521281632

          :  Hamiltonian                  GFN2-xTB          :
         :: total energy             -13.583974646567 Eh    ::
         :: gradient norm              0.000687336403 Eh/a0 ::
         :: HOMO-LUMO gap              5.505342282272 eV    ::
         :: SCC energy               -13.618090666080 Eh    ::
         :: -> dispersion             -0.001334211131 Eh    ::
         :: repulsion energy           0.034116221217 Eh    ::

    * Orbital Energies and Occupations

         #    Occupation            Energy/Eh            Energy/eV
      -------------------------------------------------------------
         1        2.0000           -1.0959863             -29.8233
         2        2.0000           -0.6927701             -18.8512
         3        2.0000           -0.6874527             -18.7065
         4        1.9998           -0.5885251             -16.0146
         5        1.9994           -0.5682801             -15.4637
         6        1.9982           -0.5454726             -14.8431
         7        1.9981           -0.5444127             -14.8142
         8        1.9923           -0.5181091             -14.0985
         9        1.8616           -0.4605493             -12.5322
        10        1.5721           -0.4314533             -11.7404
        11        1.5712           -0.4313866             -11.7386 (HOMO)
        12        0.0073           -0.2290690              -6.2333 (LUMO)
        13        0.0000           -0.0417674              -1.1365
        14        0.0000           -0.0417458              -1.1360
        15        0.0000           -0.0191640              -0.5215
        16        0.0000           -0.0177246              -0.4823
        17                          0.0931789               2.5355
        18                          0.2092450               5.6938
        19                          0.2842957               7.7361
      -------------------------------------------------------------
                  HL-Gap            0.2023176 Eh            5.5053 eV

     #   Z          covCN         q      C6AA      α(0)
     1   8 O        0.939    -0.367    21.001     6.146
     2  17 Cl       0.939     0.244    92.185    14.689
     3   1 H        0.803     0.337     0.620     1.237
     4   8 O        1.608    -0.514    23.232     6.505
     5   1 H        0.805     0.301     0.717     1.330

Wiberg/Mayer (AO) data.
largest (>0.10) Wiberg bond orders for each atom

     #   Z sym  total        # sym  WBO       # sym  WBO       # sym  WBO
 ---------------------------------------------------------------------------
     1   8 O    1.347 --     2 Cl   1.274
     2  17 Cl   1.286 --     1 O    1.274
     3   1 H    0.885 --     4 O    0.828
     4   8 O    1.763 --     5 H    0.908     3 H    0.828
     5   1 H    0.908 --     4 O    0.908
 ---------------------------------------------------------------------------

molecular dipole:
                 x           y           z       tot (Debye)
 q only:        0.186       0.025      -0.243
   full:        0.254      -0.140      -0.432       1.323

           -------------------------------------------------
          | TOTAL ENERGY              -13.583974646567 Eh   |
          | GRADIENT NORM               0.000687336403 Eh/α |
          | HOMO-LUMO GAP               5.505342282272 eV   |
           -------------------------------------------------

 * finished run on 2025/04/07 at 09:40:51.014
