   * xtb version 6.6.1 (8d0f1dd) compiled by 'stahn@M-Bot' on 2023-08-01
          program call               : xtb 509.xyz --input 509.inp --opt

   ID    Z sym.   atoms
    1    8 O      1, 4
    2   17 Cl     2
    3    1 H      3, 5

          :  Hamiltonian                  GFN2-xTB          :
 * total energy  :   -13.5374685 Eh     change       -0.4054694E-09 Eh
 * total energy  :   -13.5497681 Eh     change       -0.1229956E-01 Eh
 * total energy  :   -13.5558409 Eh     change       -0.6072878E-02 Eh
 * total energy  :   -13.5566445 Eh     change       -0.8035208E-03 Eh
 * total energy  :   -13.5593416 Eh     change       -0.2697089E-02 Eh
 * total energy  :   -13.5614942 Eh     change       -0.2152640E-02 Eh
 * total energy  :   -13.5650091 Eh     change       -0.3514906E-02 Eh
 * total energy  :   -13.5733310 Eh     change       -0.8321889E-02 Eh
 * total energy  :   -13.5679553 Eh     change        0.5375666E-02 Eh
 * total energy  :   -13.5805117 Eh     change       -0.1255632E-01 Eh
 * total energy  :   -13.5838532 Eh     change       -0.3307186E-04 Eh
 * total energy  :   -13.5838728 Eh     change       -0.1959888E-04 Eh
 * total energy  :   -13.5839010 Eh     change       -0.2828002E-04 Eh
 * total energy  :   -13.5839232 Eh     change       -0.2219494E-04 Eh
 * total energy  :   -13.5839423 Eh     change       -0.1903706E-04 Eh
 * total energy  :   -13.5835318 Eh     change        0.4104198E-03 Eh
 * total energy  :   -13.5839672 Eh     change       -0.4353310E-03 Eh
 * total energy  :   -13.5839799 Eh     change       -0.1274727E-04 Eh
 * total energy  :   -13.5839830 Eh     change       -0.3067768E-05 Eh
   *** GEOMETRY OPTIMIZATION CONVERGED AFTER 32 ITERATIONS ***

 final structure:
================
5
 xtb: 6.6.1 (8d0f1dd)
O           -1.73832033144702        6.26525159578796        1.05215675426430
Cl          -0.72903075702705        6.76712139688120       -0.03531560429225
H           -1.24586701766863        5.62988282939678        2.58337863753743
O           -1.02302276225035        5.23138577281834        3.44883188589258
H           -1.83940085567857        4.88749684632293        3.81688590747355

          :  Hamiltonian                  GFN2-xTB          :
         :: total energy             -13.583982991072 Eh    ::
         :: gradient norm              0.000984042074 Eh/a0 ::
         :: HOMO-LUMO gap              5.507587172469 eV    ::
         :: SCC energy               -13.618279178691 Eh    ::
         :: -> dispersion             -0.001334845687 Eh    ::
         :: repulsion energy           0.034296391307 Eh    ::

    * Orbital Energies and Occupations

         #    Occupation            Energy/Eh            Energy/eV
      -------------------------------------------------------------
         1        2.0000           -1.0959135             -29.8213
         2        2.0000           -0.6927110             -18.8496
         3        2.0000           -0.6875110             -18.7081
         4        1.9998           -0.5885109             -16.0142
         5        1.9995           -0.5683903             -15.4667
         6        1.9982           -0.5454146             -14.8415
         7        1.9981           -0.5443918             -14.8137
         8        1.9923           -0.5180287             -14.0963
         9        1.8620           -0.4605534             -12.5323
        10        1.5718           -0.4313724             -11.7382
        11        1.5711           -0.4313177             -11.7368 (HOMO)
        12        0.0073           -0.2289176              -6.2292 (LUMO)
        13        0.0000           -0.0417066              -1.1349
        14        0.0000           -0.0416839              -1.1343
        15        0.0000           -0.0190668              -0.5188
        16        0.0000           -0.0176333              -0.4798
        17                          0.0938111               2.5527
        18                          0.2100777               5.7165
        19                          0.2847804               7.7493
      -------------------------------------------------------------
                  HL-Gap            0.2024001 Eh            5.5076 eV

     #   Z          covCN         q      C6AA      α(0)
     1   8 O        0.939    -0.367    20.998     6.146
     2  17 Cl       0.939     0.244    92.177    14.688
     3   1 H        0.803     0.337     0.620     1.237
     4   8 O        1.609    -0.515    23.240     6.506
     5   1 H        0.805     0.301     0.717     1.330

Wiberg/Mayer (AO) data.
largest (>0.10) Wiberg bond orders for each atom

     #   Z sym  total        # sym  WBO       # sym  WBO       # sym  WBO
 ---------------------------------------------------------------------------
     1   8 O    1.347 --     2 Cl   1.274
     2  17 Cl   1.286 --     1 O    1.274
     3   1 H    0.885 --     4 O    0.828
     4   8 O    1.763 --     5 H    0.908     3 H    0.828
     5   1 H    0.908 --     4 O    0.908
 ---------------------------------------------------------------------------

molecular dipole:
                 x           y           z       tot (Debye)
 q only:        0.025       0.048      -0.284
   full:       -0.150       0.095      -0.466       1.268

           -------------------------------------------------
          | TOTAL ENERGY              -13.583982991072 Eh   |
          | GRADIENT NORM               0.000984042074 Eh/α |
          | HOMO-LUMO GAP               5.507587172469 eV   |
           -------------------------------------------------

 * finished run on 2025/04/07 at 09:40:51.176
