   * xtb version 6.6.1 (8d0f1dd) compiled by 'stahn@M-Bot' on 2023-08-01
          program call               : xtb 519.xyz --input 519.inp --opt

   ID    Z sym.   atoms
    1    8 O      1, 4
    2   17 Cl     2
    3    1 H      3, 5

          :  Hamiltonian                  GFN2-xTB          :
 * total energy  :   -13.5572181 Eh     change       -0.5196554E-10 Eh
 * total energy  :   -13.5599993 Eh     change       -0.2781187E-02 Eh
 * total energy  :   -13.5620126 Eh     change       -0.2013277E-02 Eh
 * total energy  :   -13.5646537 Eh     change       -0.2641103E-02 Eh
 * total energy  :   -13.5691894 Eh     change       -0.4535689E-02 Eh
 * total energy  :   -13.5520384 Eh     change        0.1715097E-01 Eh
 * total energy  :   -13.5756420 Eh     change       -0.2360362E-01 Eh
 * total energy  :   -13.5778650 Eh     change       -0.2223015E-02 Eh
 * total energy  :   -13.5808872 Eh     change       -0.3022226E-02 Eh
 * total energy  :   -13.5817024 Eh     change       -0.8151570E-03 Eh
 * total energy  :   -13.5839302 Eh     change       -0.1322833E-04 Eh
 * total energy  :   -13.5839482 Eh     change       -0.1804317E-04 Eh
 * total energy  :   -13.5839589 Eh     change       -0.1068011E-04 Eh
 * total energy  :   -13.5839685 Eh     change       -0.9610179E-05 Eh
 * total energy  :   -13.5839750 Eh     change       -0.6518913E-05 Eh
 * total energy  :   -13.5839845 Eh     change       -0.9502850E-05 Eh
 * total energy  :   -13.5839871 Eh     change       -0.2548187E-05 Eh
 * total energy  :   -13.5839902 Eh     change       -0.3094766E-05 Eh
 * total energy  :   -13.5839922 Eh     change       -0.2042790E-05 Eh
   *** GEOMETRY OPTIMIZATION CONVERGED AFTER 30 ITERATIONS ***

 final structure:
================
5
 xtb: 6.6.1 (8d0f1dd)
O           -1.03760977873525        6.44923854351006        1.53891403474075
Cl          -1.24281807014825        6.21364909736251        0.00472238417529
H           -0.70330031108845        5.18741653246049        2.67106077714057
O           -0.51819880942289        4.52208675986506        3.36482892940415
H           -0.48948416047437        4.99327242871603        4.20092807359430

          :  Hamiltonian                  GFN2-xTB          :
         :: total energy             -13.583992226072 Eh    ::
         :: gradient norm              0.000532094264 Eh/a0 ::
         :: HOMO-LUMO gap              5.510446077239 eV    ::
         :: SCC energy               -13.618112261750 Eh    ::
         :: -> dispersion             -0.001332302050 Eh    ::
         :: repulsion energy           0.034120245859 Eh    ::

    * Orbital Energies and Occupations

         #    Occupation            Energy/Eh            Energy/eV
      -------------------------------------------------------------
         1        2.0000           -1.0959753             -29.8230
         2        2.0000           -0.6927876             -18.8517
         3        2.0000           -0.6873863             -18.7047
         4        1.9998           -0.5885280             -16.0147
         5        1.9994           -0.5682580             -15.4631
         6        1.9982           -0.5454841             -14.8434
         7        1.9981           -0.5445061             -14.8168
         8        1.9923           -0.5180608             -14.0972
         9        1.8617           -0.4604685             -12.5300
        10        1.5717           -0.4313285             -11.7370
        11        1.5714           -0.4313070             -11.7365 (HOMO)
        12        0.0072           -0.2288018              -6.2260 (LUMO)
        13        0.0000           -0.0417413              -1.1358
        14        0.0000           -0.0417200              -1.1353
        15        0.0000           -0.0190630              -0.5187
        16        0.0000           -0.0176108              -0.4792
        17                          0.0931163               2.5338
        18                          0.2101757               5.7192
        19                          0.2843010               7.7362
      -------------------------------------------------------------
                  HL-Gap            0.2025052 Eh            5.5104 eV

     #   Z          covCN         q      C6AA      α(0)
     1   8 O        0.939    -0.367    21.002     6.146
     2  17 Cl       0.939     0.244    92.180    14.688
     3   1 H        0.803     0.337     0.620     1.237
     4   8 O        1.608    -0.515    23.233     6.505
     5   1 H        0.805     0.301     0.717     1.330

Wiberg/Mayer (AO) data.
largest (>0.10) Wiberg bond orders for each atom

     #   Z sym  total        # sym  WBO       # sym  WBO       # sym  WBO
 ---------------------------------------------------------------------------
     1   8 O    1.348 --     2 Cl   1.275
     2  17 Cl   1.286 --     1 O    1.275
     3   1 H    0.885 --     4 O    0.828
     4   8 O    1.763 --     5 H    0.908     3 H    0.828
     5   1 H    0.908 --     4 O    0.908
 ---------------------------------------------------------------------------

molecular dipole:
                 x           y           z       tot (Debye)
 q only:       -0.075       0.133      -0.245
   full:       -0.123       0.379      -0.310       1.283

           -------------------------------------------------
          | TOTAL ENERGY              -13.583992226072 Eh   |
          | GRADIENT NORM               0.000532094264 Eh/α |
          | HOMO-LUMO GAP               5.510446077239 eV   |
           -------------------------------------------------

 * finished run on 2025/04/07 at 09:40:51.347
