   * xtb version 6.6.1 (8d0f1dd) compiled by 'stahn@M-Bot' on 2023-08-01
          program call               : xtb 539.xyz --input 539.inp --opt

   ID    Z sym.   atoms
    1    8 O      1, 4
    2   17 Cl     2
    3    1 H      3, 5

          :  Hamiltonian                  GFN2-xTB          :
 * total energy  :   -13.5637769 Eh     change       -0.2512301E-10 Eh
 * total energy  :   -13.5765838 Eh     change       -0.1280690E-01 Eh
 * total energy  :   -13.5778923 Eh     change       -0.1308532E-02 Eh
 * total energy  :   -13.5794034 Eh     change       -0.1511088E-02 Eh
 * total energy  :   -13.5798311 Eh     change       -0.4276624E-03 Eh
 * total energy  :   -13.5805120 Eh     change       -0.6809246E-03 Eh
 * total energy  :   -13.5814967 Eh     change       -0.9847182E-03 Eh
 * total energy  :   -13.5824396 Eh     change       -0.9428628E-03 Eh
 * total energy  :   -13.5812562 Eh     change        0.1183358E-02 Eh
 * total energy  :   -13.5824484 Eh     change       -0.1192187E-02 Eh
 * total energy  :   -13.5838804 Eh     change       -0.2236772E-04 Eh
 * total energy  :   -13.5839044 Eh     change       -0.2396451E-04 Eh
 * total energy  :   -13.5839339 Eh     change       -0.2953119E-04 Eh
 * total energy  :   -13.5839399 Eh     change       -0.6038378E-05 Eh
 * total energy  :   -13.5839584 Eh     change       -0.1849964E-04 Eh
 * total energy  :   -13.5839710 Eh     change       -0.1257292E-04 Eh
 * total energy  :   -13.5839516 Eh     change        0.1937351E-04 Eh
 * total energy  :   -13.5839839 Eh     change       -0.3222256E-04 Eh
 * total energy  :   -13.5839866 Eh     change       -0.2740516E-05 Eh
   *** GEOMETRY OPTIMIZATION CONVERGED AFTER 33 ITERATIONS ***

 final structure:
================
5
 xtb: 6.6.1 (8d0f1dd)
O           -0.13850347260398        5.54447306506738        1.07685464266952
Cl          -1.44747419948243        6.32268015759695        0.71165733672009
H            0.35085750323398        5.17708673361557        2.69527970762491
O            0.68473283325724        4.91375615781959        3.57653176605624
H            1.44802002048706        4.35043828531583        3.42728860433089

          :  Hamiltonian                  GFN2-xTB          :
         :: total energy             -13.583986607047 Eh    ::
         :: gradient norm              0.000369696629 Eh/a0 ::
         :: HOMO-LUMO gap              5.508668629655 eV    ::
         :: SCC energy               -13.618129243997 Eh    ::
         :: -> dispersion             -0.001330665352 Eh    ::
         :: repulsion energy           0.034142846848 Eh    ::

    * Orbital Energies and Occupations

         #    Occupation            Energy/Eh            Energy/eV
      -------------------------------------------------------------
         1        2.0000           -1.0960438             -29.8249
         2        2.0000           -0.6927694             -18.8512
         3        2.0000           -0.6874116             -18.7054
         4        1.9998           -0.5884757             -16.0132
         5        1.9994           -0.5682644             -15.4633
         6        1.9982           -0.5455270             -14.8445
         7        1.9981           -0.5444874             -14.8163
         8        1.9923           -0.5181233             -14.0989
         9        1.8617           -0.4605154             -12.5313
        10        1.5719           -0.4314003             -11.7390
        11        1.5714           -0.4313591             -11.7379 (HOMO)
        12        0.0072           -0.2289192              -6.2292 (LUMO)
        13        0.0000           -0.0418005              -1.1374
        14        0.0000           -0.0417799              -1.1369
        15        0.0000           -0.0191438              -0.5209
        16        0.0000           -0.0177003              -0.4816
        17                          0.0930314               2.5315
        18                          0.2097582               5.7078
        19                          0.2841845               7.7331
      -------------------------------------------------------------
                  HL-Gap            0.2024398 Eh            5.5087 eV

     #   Z          covCN         q      C6AA      α(0)
     1   8 O        0.939    -0.367    21.003     6.146
     2  17 Cl       0.939     0.243    92.189    14.689
     3   1 H        0.803     0.337     0.620     1.237
     4   8 O        1.608    -0.514    23.226     6.504
     5   1 H        0.805     0.301     0.717     1.330

Wiberg/Mayer (AO) data.
largest (>0.10) Wiberg bond orders for each atom

     #   Z sym  total        # sym  WBO       # sym  WBO       # sym  WBO
 ---------------------------------------------------------------------------
     1   8 O    1.347 --     2 Cl   1.274
     2  17 Cl   1.286 --     1 O    1.274
     3   1 H    0.885 --     4 O    0.828
     4   8 O    1.763 --     5 H    0.908     3 H    0.828
     5   1 H    0.908 --     4 O    0.908
 ---------------------------------------------------------------------------

molecular dipole:
                 x           y           z       tot (Debye)
 q only:       -0.187       0.057      -0.228
   full:       -0.170       0.039      -0.489       1.321

           -------------------------------------------------
          | TOTAL ENERGY              -13.583986607047 Eh   |
          | GRADIENT NORM               0.000369696629 Eh/α |
          | HOMO-LUMO GAP               5.508668629655 eV   |
           -------------------------------------------------

 * finished run on 2025/04/07 at 09:40:51.530
