   * xtb version 6.6.1 (8d0f1dd) compiled by 'stahn@M-Bot' on 2023-08-01
          program call               : xtb 549.xyz --input 549.inp --opt

   ID    Z sym.   atoms
    1    8 O      1, 4
    2   17 Cl     2
    3    1 H      3, 5

          :  Hamiltonian                  GFN2-xTB          :
 * total energy  :   -13.5321002 Eh     change       -0.2065903E-11 Eh
 * total energy  :   -13.5686187 Eh     change       -0.3651841E-01 Eh
 * total energy  :   -13.5059276 Eh     change        0.6269102E-01 Eh
 * total energy  :   -13.5765406 Eh     change       -0.7061298E-01 Eh
 * total energy  :   -13.5779183 Eh     change       -0.1377729E-02 Eh
 * total energy  :   -13.5788368 Eh     change       -0.9184508E-03 Eh
 * total energy  :   -13.5793374 Eh     change       -0.5005879E-03 Eh
 * total energy  :   -13.5798663 Eh     change       -0.5289541E-03 Eh
 * total energy  :   -13.5800310 Eh     change       -0.1647131E-03 Eh
 * total energy  :   -13.5805057 Eh     change       -0.4746188E-03 Eh
 * total energy  :   -13.5839083 Eh     change       -0.2900483E-04 Eh
 * total energy  :   -13.5839284 Eh     change       -0.2005930E-04 Eh
 * total energy  :   -13.5839445 Eh     change       -0.1611730E-04 Eh
 * total energy  :   -13.5839596 Eh     change       -0.1508447E-04 Eh
 * total energy  :   -13.5839638 Eh     change       -0.4206148E-05 Eh
 * total energy  :   -13.5839690 Eh     change       -0.5247748E-05 Eh
 * total energy  :   -13.5839709 Eh     change       -0.1899872E-05 Eh
 * total energy  :   -13.5839743 Eh     change       -0.3371258E-05 Eh
 * total energy  :   -13.5839773 Eh     change       -0.2989989E-05 Eh
   *** GEOMETRY OPTIMIZATION CONVERGED AFTER 40 ITERATIONS ***

 final structure:
================
5
 xtb: 6.6.1 (8d0f1dd)
O           -0.02598601571334        5.58907057082225        1.14873294627739
Cl          -1.36530389398016        4.92519771227061        0.68496700314152
H            1.97518231148182        5.94490749280359        3.44276546156161
O            1.22103792388366        5.35837215347429        3.53960325183666
H            0.72402865837242        5.39689237556702        2.69779036320253

          :  Hamiltonian                  GFN2-xTB          :
         :: total energy             -13.583977306249 Eh    ::
         :: gradient norm              0.000917215287 Eh/a0 ::
         :: HOMO-LUMO gap              5.511211970353 eV    ::
         :: SCC energy               -13.618170439657 Eh    ::
         :: -> dispersion             -0.001322265781 Eh    ::
         :: repulsion energy           0.034193357994 Eh    ::

    * Orbital Energies and Occupations

         #    Occupation            Energy/Eh            Energy/eV
      -------------------------------------------------------------
         1        2.0000           -1.0961045             -29.8265
         2        2.0000           -0.6927649             -18.8511
         3        2.0000           -0.6872449             -18.7009
         4        1.9998           -0.5885797             -16.0161
         5        1.9994           -0.5678808             -15.4528
         6        1.9982           -0.5455274             -14.8446
         7        1.9981           -0.5445674             -14.8184
         8        1.9924           -0.5180888             -14.0979
         9        1.8615           -0.4603553             -12.5269
        10        1.5719           -0.4312664             -11.7354
        11        1.5714           -0.4312300             -11.7344 (HOMO)
        12        0.0072           -0.2286967              -6.2232 (LUMO)
        13        0.0000           -0.0417964              -1.1373
        14        0.0000           -0.0417805              -1.1369
        15        0.0000           -0.0190502              -0.5184
        16        0.0000           -0.0176011              -0.4789
        17                          0.0930811               2.5329
        18                          0.2100893               5.7168
        19                          0.2857942               7.7769
      -------------------------------------------------------------
                  HL-Gap            0.2025333 Eh            5.5112 eV

     #   Z          covCN         q      C6AA      α(0)
     1   8 O        0.939    -0.368    21.012     6.148
     2  17 Cl       0.939     0.243    92.196    14.690
     3   1 H        0.805     0.302     0.716     1.329
     4   8 O        1.608    -0.514    23.213     6.503
     5   1 H        0.803     0.337     0.620     1.237

Wiberg/Mayer (AO) data.
largest (>0.10) Wiberg bond orders for each atom

     #   Z sym  total        # sym  WBO       # sym  WBO       # sym  WBO
 ---------------------------------------------------------------------------
     1   8 O    1.345 --     2 Cl   1.275
     2  17 Cl   1.286 --     1 O    1.275
     3   1 H    0.908 --     4 O    0.908
     4   8 O    1.764 --     3 H    0.908     5 H    0.830
     5   1 H    0.885 --     4 O    0.830
 ---------------------------------------------------------------------------

molecular dipole:
                 x           y           z       tot (Debye)
 q only:       -0.208      -0.001      -0.240
   full:       -0.232       0.102      -0.488       1.397

           -------------------------------------------------
          | TOTAL ENERGY              -13.583977306249 Eh   |
          | GRADIENT NORM               0.000917215287 Eh/α |
          | HOMO-LUMO GAP               5.511211970353 eV   |
           -------------------------------------------------

 * finished run on 2025/04/07 at 09:40:51.706
