   * xtb version 6.6.1 (8d0f1dd) compiled by 'stahn@M-Bot' on 2023-08-01
          program call               : xtb 559.xyz --input 559.inp --opt

   ID    Z sym.   atoms
    1    8 O      1, 4
    2   17 Cl     2
    3    1 H      3, 5

          :  Hamiltonian                  GFN2-xTB          :
 * total energy  :   -13.5569463 Eh     change       -0.1494580E-08 Eh
 * total energy  :   -13.5722580 Eh     change       -0.1531161E-01 Eh
 * total energy  :   -13.5731484 Eh     change       -0.8904278E-03 Eh
 * total energy  :   -13.5761358 Eh     change       -0.2987427E-02 Eh
 * total energy  :   -13.5768549 Eh     change       -0.7190640E-03 Eh
 * total energy  :   -13.5773571 Eh     change       -0.5021808E-03 Eh
 * total energy  :   -13.5784437 Eh     change       -0.1086689E-02 Eh
 * total energy  :   -13.5793886 Eh     change       -0.9448264E-03 Eh
 * total energy  :   -13.5798890 Eh     change       -0.5004619E-03 Eh
 * total energy  :   -13.5771926 Eh     change        0.2696451E-02 Eh
 * total energy  :   -13.5839448 Eh     change       -0.1020740E-04 Eh
 * total energy  :   -13.5839579 Eh     change       -0.1313595E-04 Eh
 * total energy  :   -13.5839772 Eh     change       -0.1927613E-04 Eh
 * total energy  :   -13.5839781 Eh     change       -0.8862429E-06 Eh
 * total energy  :   -13.5839850 Eh     change       -0.6887998E-05 Eh
 * total energy  :   -13.5839885 Eh     change       -0.3551947E-05 Eh
 * total energy  :   -13.5839899 Eh     change       -0.1425356E-05 Eh
 * total energy  :   -13.5839912 Eh     change       -0.1264227E-05 Eh
 * total energy  :   -13.5839924 Eh     change       -0.1217344E-05 Eh
   *** GEOMETRY OPTIMIZATION CONVERGED AFTER 65 ITERATIONS ***

 final structure:
================
5
 xtb: 6.6.1 (8d0f1dd)
O           -0.17440051625888        4.65946049760421        1.76588091724671
Cl          -0.88440110342044        5.50239932858906        0.65245605612439
H            2.10064610790393        4.78493460395817        3.84584380188248
O            1.92536226656868        5.51079503475266        3.24221849217779
H            1.16876743420237        5.23820274631462        2.68482601187080

          :  Hamiltonian                  GFN2-xTB          :
         :: total energy             -13.583992418479 Eh    ::
         :: gradient norm              0.000516173417 Eh/a0 ::
         :: HOMO-LUMO gap              5.505829059990 eV    ::
         :: SCC energy               -13.618139003629 Eh    ::
         :: -> dispersion             -0.001334532588 Eh    ::
         :: repulsion energy           0.034146791689 Eh    ::

    * Orbital Energies and Occupations

         #    Occupation            Energy/Eh            Energy/eV
      -------------------------------------------------------------
         1        2.0000           -1.0959340             -29.8219
         2        2.0000           -0.6927373             -18.8503
         3        2.0000           -0.6874683             -18.7070
         4        1.9998           -0.5884799             -16.0134
         5        1.9994           -0.5683343             -15.4652
         6        1.9982           -0.5454047             -14.8412
         7        1.9981           -0.5443733             -14.8132
         8        1.9923           -0.5181237             -14.0989
         9        1.8617           -0.4605537             -12.5323
        10        1.5717           -0.4314190             -11.7395
        11        1.5715           -0.4314013             -11.7390 (HOMO)
        12        0.0073           -0.2290658              -6.2332 (LUMO)
        13        0.0000           -0.0417281              -1.1355
        14        0.0000           -0.0417055              -1.1349
        15        0.0000           -0.0191365              -0.5207
        16        0.0000           -0.0177003              -0.4816
        17                          0.0934173               2.5420
        18                          0.2092970               5.6953
        19                          0.2841121               7.7311
      -------------------------------------------------------------
                  HL-Gap            0.2023355 Eh            5.5058 eV

     #   Z          covCN         q      C6AA      α(0)
     1   8 O        0.939    -0.367    20.999     6.146
     2  17 Cl       0.939     0.244    92.181    14.689
     3   1 H        0.805     0.301     0.717     1.330
     4   8 O        1.608    -0.515    23.235     6.506
     5   1 H        0.803     0.337     0.620     1.237

Wiberg/Mayer (AO) data.
largest (>0.10) Wiberg bond orders for each atom

     #   Z sym  total        # sym  WBO       # sym  WBO       # sym  WBO
 ---------------------------------------------------------------------------
     1   8 O    1.347 --     2 Cl   1.274
     2  17 Cl   1.285 --     1 O    1.274
     3   1 H    0.908 --     4 O    0.908
     4   8 O    1.763 --     3 H    0.908     5 H    0.828
     5   1 H    0.885 --     4 O    0.828
 ---------------------------------------------------------------------------

molecular dipole:
                 x           y           z       tot (Debye)
 q only:       -0.218       0.000      -0.179
   full:       -0.397      -0.175      -0.240       1.261

           -------------------------------------------------
          | TOTAL ENERGY              -13.583992418479 Eh   |
          | GRADIENT NORM               0.000516173417 Eh/α |
          | HOMO-LUMO GAP               5.505829059990 eV   |
           -------------------------------------------------

 * finished run on 2025/04/07 at 09:40:51.922
