 Gaussian 16, Revision A.03,
 Gaussian 16:  EM64L-G16RevA.03 25-Dec-2016

 --------------------------------------------------------------------
 #opt=(noeigen,calcfc,ts,recalc=5,maxcyc=200) freq B3LYP/SVP em=GD3BJ
 --------------------------------------------------------------------

 ----------
 ts-437.gjf
 ----------
 Symbolic Z-matrix:
 Charge =  0 Multiplicity = 1

 SCF Done:  E(RB3LYP) =  -535.596185636     A.U. after   23 cycles
 SCF Done:  E(RB3LYP) =  -535.598700914     A.U. after   14 cycles
 SCF Done:  E(RB3LYP) =  -535.598919247     A.U. after   15 cycles
 SCF Done:  E(RB3LYP) =  -535.597897462     A.U. after   14 cycles
 SCF Done:  E(RB3LYP) =  -535.596857982     A.U. after   14 cycles
 SCF Done:  E(RB3LYP) =  -535.596089988     A.U. after   14 cycles
 SCF Done:  E(RB3LYP) =  -535.595366767     A.U. after   14 cycles
 SCF Done:  E(RB3LYP) =  -535.594852983     A.U. after   15 cycles
 SCF Done:  E(RB3LYP) =  -535.594563625     A.U. after   15 cycles
 SCF Done:  E(RB3LYP) =  -535.594579395     A.U. after   14 cycles
 SCF Done:  E(RB3LYP) =  -535.594579300     A.U. after   11 cycles
 SCF Done:  E(RB3LYP) =  -535.594579398     A.U. after    8 cycles
 Optimization completed.
    -- Stationary point found.
 Normal termination of Gaussian 16 at Thu Mar  6 16:37:05 2025.

 ---------------------------------------------------------------
 #N Geom=AllCheck Guess=TCheck SCRF=Check GenChk RB3LYP/SVP Freq
 ---------------------------------------------------------------

 Structure from the checkpoint file:  "/tmp/Gau-31144.chk"
 ----------
 ts-437.gjf
 ----------
 Charge =  0 Multiplicity = 1

                         Standard orientation:
 ---------------------------------------------------------------------
 Center     Atomic      Atomic             Coordinates (Angstroms)
 Number     Number       Type             X           Y           Z
 ---------------------------------------------------------------------
      1          8           0        0.032874    1.733476    0.000000
      2         17           0        0.032874   -0.946185   -0.000000
      3          1           0       -0.821840    2.217336    0.000000
 ---------------------------------------------------------------------

 SCF Done:  E(RB3LYP) =  -535.594579398     A.U. after    3 cycles

 The electronic state is 1-A'.
 Alpha  occ. eigenvalues -- -101.51669 -19.20764  -9.46721  -7.24012  -7.22493
 Alpha  occ. eigenvalues --   -7.22445  -0.97006  -0.78299  -0.46508  -0.34900
 Alpha  occ. eigenvalues --   -0.32212  -0.31126  -0.28413
 Alpha virt. eigenvalues --   -0.26997   0.04803   0.45335   0.54907   0.72313
 Alpha virt. eigenvalues --    0.76109   0.76577   0.76829   0.78068   0.82975
 Alpha virt. eigenvalues --    0.83634   0.85134   0.91198   0.91907   1.03711

 Mulliken charges:
               1
     1  O   -0.151285
     2  Cl  -0.033538
     3  H    0.184824
 Sum of Mulliken charges =  -0.00000

 Dipole moment (field-independent basis, Debye):
    X=             -1.4843    Y=              1.3506    Z=              0.0000  Tot=              2.0068
 Quadrupole moment (field-independent basis, Debye-Ang):
   XX=            -17.3324   YY=            -15.2686   ZZ=            -16.0025
   XY=             -3.5541   XZ=              0.0000   YZ=              0.0000

  Exact polarizability:  10.540  -4.039  55.649   0.000  -0.000   8.359
 Approx polarizability:  13.355  -5.491 507.650  -0.000  -0.000  12.688

 ******    1 imaginary frequencies (negative Signs) ******

                      1                      2                      3
                     A'                     A'                     A'
 Frequencies --   -258.4476               201.0073              3668.5418
 Red. masses --      1.1245                 9.2353                 1.0671
 Frc consts  --      0.0443                 0.2198                 8.4612
 IR Inten    --    102.7049                 1.0786                81.8723

 - Thermochemistry -
 -------------------
 Temperature   298.150 Kelvin.  Pressure   1.00000 Atm.
 Atom     1 has atomic number  8 and mass  15.99491

 Molecular mass:    51.97159 amu.
 Principal axes and moments of inertia in atomic units:
                           1         2         3
     Eigenvalues --     2.41354 300.62428 303.03782
           X           -0.02350   0.99972   0.00000
           Y            0.99972   0.02350   0.00000
           Z           -0.00000  -0.00000   1.00000
 This molecule is an asymmetric top.
 Rotational symmetry number  1.
 Rotational temperatures (Kelvin)     35.88669     0.28811     0.28582
 Rotational constants (GHZ):         747.75730     6.00331     5.95550
    1 imaginary frequencies ignored.
 Zero-point vibrational energy      23145.0 (Joules/Mol)
                                    5.53180 (Kcal/Mol)
 Warning -- explicit consideration of   1 degrees of freedom as
           vibrations may cause significant error
 Vibrational temperatures:    289.20  5278.21
          (Kelvin)

 Zero-point correction=                           0.008815 (Hartree/Particle)
 Thermal correction to Energy=                    0.012207
 Thermal correction to Enthalpy=                  0.013151
 Thermal correction to Gibbs Free Energy=        -0.015317
 Sum of electronic and zero-point Energies=           -535.585764
 Sum of electronic and thermal Energies=              -535.582372
 Sum of electronic and thermal Enthalpies=            -535.581428
 Sum of electronic and thermal Free Energies=         -535.609896

                     E (Thermal)             CV                S
                      KCal/Mol        Cal/Mol-Kelvin    Cal/Mol-Kelvin
 Total                    7.660              7.800             59.916
 Electronic               0.000              0.000              0.000
 Translational            0.889              2.981             37.767
 Rotational               0.889              2.981             20.025
 Vibrational              5.883              1.838              2.124
 Vibration     1          0.638              1.838              2.124

                           ! Non-Optimized Parameters !
 Normal termination of Gaussian 16 at Thu Mar  6 16:37:07 2025.
