   * xtb version 6.6.1 (8d0f1dd) compiled by 'stahn@M-Bot' on 2023-08-01
          program call               : xtb 189.xyz --input 189.inp --opt

   ID    Z sym.   atoms
    1    8 O      1
    2   17 Cl     2
    3    1 H      3

          :  Hamiltonian                  GFN2-xTB          :
 * total energy  :    -9.0506447 Eh     change       -0.5186962E-12 Eh
 * total energy  :    -9.0605296 Eh     change       -0.9884905E-02 Eh
 * total energy  :    -9.0619590 Eh     change       -0.1429379E-02 Eh
 * total energy  :    -9.0647300 Eh     change       -0.2771026E-02 Eh
 * total energy  :    -9.0648687 Eh     change       -0.1387177E-03 Eh
 * total energy  :    -9.0648737 Eh     change       -0.4992893E-05 Eh
   *** GEOMETRY OPTIMIZATION CONVERGED AFTER 6 ITERATIONS ***

 final structure:
================
3
 xtb: 6.6.1 (8d0f1dd)
O            2.44147307724350       -0.35916884548702        5.74439270755041
Cl           2.98743857658408       -0.63929162312357        4.15278034911779
H            1.49636364779521       -0.55399107516844        5.74863227049762

          :  Hamiltonian                  GFN2-xTB          :
         :: total energy              -9.064873731526 Eh    ::
         :: gradient norm              0.000376394839 Eh/a0 ::
         :: HOMO-LUMO gap              4.361406413546 eV    ::
         :: SCC energy                -9.081544172146 Eh    ::
         :: -> dispersion             -0.000594283997 Eh    ::
         :: repulsion energy           0.016670440097 Eh    ::

    * Orbital Energies and Occupations

         #    Occupation            Energy/Eh            Energy/eV
      -------------------------------------------------------------
         1        2.0000           -1.0751796             -29.2571
         2        2.0000           -0.7092252             -19.2990
         3        2.0000           -0.5984861             -16.2856
         4        2.0000           -0.5548556             -15.0984
         5        1.9998           -0.5215635             -14.1925
         6        1.9896           -0.4477367             -12.1835
         7        1.9758           -0.4316259             -11.7451 (HOMO)
         8        0.0349           -0.2713472              -7.3837 (LUMO)
         9                         -0.0111022              -0.3021
        10                         -0.0108505              -0.2953
        11                         -0.0087059              -0.2369
        12                         -0.0006287              -0.0171
        13                          0.1041746               2.8347
        14                          0.1360295               3.7016
      -------------------------------------------------------------
                  HL-Gap            0.1602787 Eh            4.3614 eV

     #   Z          covCN         q      C6AA      α(0)
     1   8 O        1.733    -0.376    20.367     6.094
     2  17 Cl       0.931     0.052    97.644    15.117
     3   1 H        0.808     0.324     0.652     1.268

Wiberg/Mayer (AO) data.
largest (>0.10) Wiberg bond orders for each atom

     #   Z sym  total        # sym  WBO       # sym  WBO       # sym  WBO
 ---------------------------------------------------------------------------
     1   8 O    1.908 --     2 Cl   1.017     3 H    0.891
     2  17 Cl   1.019 --     1 O    1.017
     3   1 H    0.894 --     1 O    0.891
 ---------------------------------------------------------------------------

molecular dipole:
                 x           y           z       tot (Debye)
 q only:       -0.525      -0.147      -0.154
   full:       -0.558      -0.165      -0.199       1.563

           -------------------------------------------------
          | TOTAL ENERGY               -9.064873731526 Eh   |
          | GRADIENT NORM               0.000376394839 Eh/α |
          | HOMO-LUMO GAP               4.361406413546 eV   |
           -------------------------------------------------

 * finished run on 2025/04/07 at 09:40:48.353
