   * xtb version 6.6.1 (8d0f1dd) compiled by 'stahn@M-Bot' on 2023-08-01
          program call               : xtb 199.xyz --input 199.inp --opt

   ID    Z sym.   atoms
    1    8 O      1
    2   17 Cl     2
    3    1 H      3

          :  Hamiltonian                  GFN2-xTB          :
 * total energy  :    -9.0479891 Eh     change       -0.5657697E-11 Eh
 * total energy  :    -9.0588050 Eh     change       -0.1081590E-01 Eh
 * total energy  :    -9.0516906 Eh     change        0.7114369E-02 Eh
 * total energy  :    -9.0644484 Eh     change       -0.1275777E-01 Eh
 * total energy  :    -9.0648269 Eh     change       -0.3784875E-03 Eh
 * total energy  :    -9.0648647 Eh     change       -0.3783998E-04 Eh
 * total energy  :    -9.0648736 Eh     change       -0.8920318E-05 Eh
 * total energy  :    -9.0648738 Eh     change       -0.1497649E-06 Eh
   *** GEOMETRY OPTIMIZATION CONVERGED AFTER 8 ITERATIONS ***

 final structure:
================
3
 xtb: 6.6.1 (8d0f1dd)
O            1.95331798916242       -0.51680941075585        4.88698913785217
Cl           3.25686600073096       -0.82910119977243        3.83074408648916
H            2.34013473114765       -0.35195236128398        5.75561276268857

          :  Hamiltonian                  GFN2-xTB          :
         :: total energy              -9.064873761360 Eh    ::
         :: gradient norm              0.000337665600 Eh/a0 ::
         :: HOMO-LUMO gap              4.356896738147 eV    ::
         :: SCC energy                -9.081530485255 Eh    ::
         :: -> dispersion             -0.000594281300 Eh    ::
         :: repulsion energy           0.016656723366 Eh    ::

    * Orbital Energies and Occupations

         #    Occupation            Energy/Eh            Energy/eV
      -------------------------------------------------------------
         1        2.0000           -1.0752145             -29.2581
         2        2.0000           -0.7091917             -19.2981
         3        2.0000           -0.5983898             -16.2830
         4        2.0000           -0.5548879             -15.0993
         5        1.9998           -0.5215003             -14.1907
         6        1.9895           -0.4478201             -12.1858
         7        1.9757           -0.4317293             -11.7480 (HOMO)
         8        0.0350           -0.2716163              -7.3911 (LUMO)
         9                         -0.0111558              -0.3036
        10                         -0.0109033              -0.2967
        11                         -0.0087338              -0.2377
        12                         -0.0007191              -0.0196
        13                          0.1037902               2.8243
        14                          0.1356548               3.6914
      -------------------------------------------------------------
                  HL-Gap            0.1601130 Eh            4.3569 eV

     #   Z          covCN         q      C6AA      α(0)
     1   8 O        1.733    -0.376    20.368     6.094
     2  17 Cl       0.931     0.052    97.644    15.117
     3   1 H        0.808     0.324     0.652     1.268

Wiberg/Mayer (AO) data.
largest (>0.10) Wiberg bond orders for each atom

     #   Z sym  total        # sym  WBO       # sym  WBO       # sym  WBO
 ---------------------------------------------------------------------------
     1   8 O    1.907 --     2 Cl   1.016     3 H    0.891
     2  17 Cl   1.019 --     1 O    1.016
     3   1 H    0.894 --     1 O    0.891
 ---------------------------------------------------------------------------

molecular dipole:
                 x           y           z       tot (Debye)
 q only:        0.365       0.070       0.428
   full:        0.422       0.070       0.442       1.564

           -------------------------------------------------
          | TOTAL ENERGY               -9.064873761360 Eh   |
          | GRADIENT NORM               0.000337665600 Eh/α |
          | HOMO-LUMO GAP               4.356896738147 eV   |
           -------------------------------------------------

 * finished run on 2025/04/07 at 09:40:48.477
