   * xtb version 6.6.1 (8d0f1dd) compiled by 'stahn@M-Bot' on 2023-08-01
          program call               : xtb 209.xyz --input 209.inp --opt

   ID    Z sym.   atoms
    1    8 O      1
    2   17 Cl     2
    3    1 H      3

          :  Hamiltonian                  GFN2-xTB          :
 * total energy  :    -9.0523564 Eh     change       -0.5830003E-11 Eh
 * total energy  :    -9.0606064 Eh     change       -0.8249987E-02 Eh
 * total energy  :    -9.0641821 Eh     change       -0.3575727E-02 Eh
 * total energy  :    -9.0648040 Eh     change       -0.6218857E-03 Eh
 * total energy  :    -9.0648696 Eh     change       -0.6561488E-04 Eh
 * total energy  :    -9.0648737 Eh     change       -0.4092040E-05 Eh
   *** GEOMETRY OPTIMIZATION CONVERGED AFTER 6 ITERATIONS ***

 final structure:
================
3
 xtb: 6.6.1 (8d0f1dd)
O            2.06961586434147       -0.87061984145258        4.30159980942103
Cl           3.59080466175591       -0.95593344401092        3.53397438825199
H            1.65892267240348       -1.73708410004684        4.18903048345965

          :  Hamiltonian                  GFN2-xTB          :
         :: total energy              -9.064873733046 Eh    ::
         :: gradient norm              0.000370731467 Eh/a0 ::
         :: HOMO-LUMO gap              4.360950402891 eV    ::
         :: SCC energy                -9.081473002879 Eh    ::
         :: -> dispersion             -0.000594269369 Eh    ::
         :: repulsion energy           0.016599269302 Eh    ::

    * Orbital Energies and Occupations

         #    Occupation            Energy/Eh            Energy/eV
      -------------------------------------------------------------
         1        2.0000           -1.0752161             -29.2581
         2        2.0000           -0.7092117             -19.2986
         3        2.0000           -0.5984321             -16.2842
         4        2.0000           -0.5549353             -15.1006
         5        1.9998           -0.5215649             -14.1925
         6        1.9896           -0.4477792             -12.1847
         7        1.9758           -0.4316758             -11.7465 (HOMO)
         8        0.0349           -0.2714138              -7.3855 (LUMO)
         9                         -0.0111510              -0.3034
        10                         -0.0108918              -0.2964
        11                         -0.0087402              -0.2378
        12                         -0.0006787              -0.0185
        13                          0.1040895               2.8324
        14                          0.1350111               3.6738
      -------------------------------------------------------------
                  HL-Gap            0.1602620 Eh            4.3610 eV

     #   Z          covCN         q      C6AA      α(0)
     1   8 O        1.733    -0.376    20.366     6.093
     2  17 Cl       0.931     0.052    97.647    15.118
     3   1 H        0.808     0.324     0.652     1.268

Wiberg/Mayer (AO) data.
largest (>0.10) Wiberg bond orders for each atom

     #   Z sym  total        # sym  WBO       # sym  WBO       # sym  WBO
 ---------------------------------------------------------------------------
     1   8 O    1.908 --     2 Cl   1.016     3 H    0.891
     2  17 Cl   1.019 --     1 O    1.016
     3   1 H    0.894 --     1 O    0.891
 ---------------------------------------------------------------------------

molecular dipole:
                 x           y           z       tot (Debye)
 q only:       -0.103      -0.539      -0.144
   full:       -0.080      -0.586      -0.172       1.564

           -------------------------------------------------
          | TOTAL ENERGY               -9.064873733046 Eh   |
          | GRADIENT NORM               0.000370731467 Eh/α |
          | HOMO-LUMO GAP               4.360950402891 eV   |
           -------------------------------------------------

 * finished run on 2025/04/07 at 09:40:48.594
