   * xtb version 6.6.1 (8d0f1dd) compiled by 'stahn@M-Bot' on 2023-08-01
          program call               : xtb 229.xyz --input 229.inp --opt

   ID    Z sym.   atoms
    1    8 O      1
    2   17 Cl     2
    3    1 H      3

          :  Hamiltonian                  GFN2-xTB          :
 * total energy  :    -9.0043581 Eh     change       -0.1469047E-11 Eh
 * total energy  :    -9.0125566 Eh     change       -0.8198406E-02 Eh
 * total energy  :    -9.0505500 Eh     change       -0.3799349E-01 Eh
 * total energy  :    -8.9554463 Eh     change        0.9510373E-01 Eh
 * total energy  :    -9.0576828 Eh     change       -0.1022365E+00 Eh
 * total energy  :    -9.0313260 Eh     change        0.2635686E-01 Eh
 * total energy  :    -9.0608838 Eh     change       -0.2955780E-01 Eh
 * total energy  :    -9.0611461 Eh     change       -0.2623245E-03 Eh
 * total energy  :    -9.0646203 Eh     change       -0.3474163E-02 Eh
 * total energy  :    -9.0647932 Eh     change       -0.1729474E-03 Eh
 * total energy  :    -9.0648619 Eh     change       -0.6872297E-04 Eh
 * total energy  :    -9.0648728 Eh     change       -0.1088329E-04 Eh
 * total energy  :    -9.0648737 Eh     change       -0.8509553E-06 Eh
   *** GEOMETRY OPTIMIZATION CONVERGED AFTER 13 ITERATIONS ***

 final structure:
================
3
 xtb: 6.6.1 (8d0f1dd)
O            2.73499417219927       -2.19585699027365        2.90223556553824
Cl           3.62424681521318       -1.32786964673946        4.07096029789662
H            2.15608280221705       -1.55723340469495        2.46725889162297

          :  Hamiltonian                  GFN2-xTB          :
         :: total energy              -9.064873672416 Eh    ::
         :: gradient norm              0.000382432263 Eh/a0 ::
         :: HOMO-LUMO gap              4.360515380636 eV    ::
         :: SCC energy                -9.081467494698 Eh    ::
         :: -> dispersion             -0.000594282908 Eh    ::
         :: repulsion energy           0.016593821758 Eh    ::

    * Orbital Energies and Occupations

         #    Occupation            Energy/Eh            Energy/eV
      -------------------------------------------------------------
         1        2.0000           -1.0751676             -29.2568
         2        2.0000           -0.7091730             -19.2976
         3        2.0000           -0.5984551             -16.2848
         4        2.0000           -0.5548220             -15.0975
         5        1.9998           -0.5215304             -14.1916
         6        1.9896           -0.4477326             -12.1834
         7        1.9758           -0.4316189             -11.7449 (HOMO)
         8        0.0349           -0.2713729              -7.3844 (LUMO)
         9                         -0.0110953              -0.3019
        10                         -0.0108387              -0.2949
        11                         -0.0087284              -0.2375
        12                         -0.0006206              -0.0169
        13                          0.1040723               2.8320
        14                          0.1352558               3.6805
      -------------------------------------------------------------
                  HL-Gap            0.1602460 Eh            4.3605 eV

     #   Z          covCN         q      C6AA      α(0)
     1   8 O        1.733    -0.376    20.366     6.093
     2  17 Cl       0.931     0.052    97.644    15.117
     3   1 H        0.808     0.324     0.652     1.268

Wiberg/Mayer (AO) data.
largest (>0.10) Wiberg bond orders for each atom

     #   Z sym  total        # sym  WBO       # sym  WBO       # sym  WBO
 ---------------------------------------------------------------------------
     1   8 O    1.908 --     2 Cl   1.017     3 H    0.891
     2  17 Cl   1.019 --     1 O    1.017
     3   1 H    0.894 --     1 O    0.891
 ---------------------------------------------------------------------------

molecular dipole:
                 x           y           z       tot (Debye)
 q only:       -0.267       0.476      -0.152
   full:       -0.271       0.534      -0.141       1.563

           -------------------------------------------------
          | TOTAL ENERGY               -9.064873672416 Eh   |
          | GRADIENT NORM               0.000382432263 Eh/α |
          | HOMO-LUMO GAP               4.360515380636 eV   |
           -------------------------------------------------

 * finished run on 2025/04/07 at 09:40:48.705
