   * xtb version 6.6.1 (8d0f1dd) compiled by 'stahn@M-Bot' on 2023-08-01
          program call               : xtb 239.xyz --input 239.inp --opt

   ID    Z sym.   atoms
    1    8 O      1
    2   17 Cl     2
    3    1 H      3

          :  Hamiltonian                  GFN2-xTB          :
 * total energy  :    -9.0037312 Eh     change       -0.8011369E-12 Eh
 * total energy  :    -9.0044370 Eh     change       -0.7058164E-03 Eh
 * total energy  :    -9.0045543 Eh     change       -0.1173283E-03 Eh
 * total energy  :    -9.0046271 Eh     change       -0.7278680E-04 Eh
 * total energy  :    -9.0047387 Eh     change       -0.1116054E-03 Eh
 * total energy  :    -9.0048166 Eh     change       -0.7788452E-04 Eh
 * total energy  :    -9.0049607 Eh     change       -0.1441384E-03 Eh
 * total energy  :    -9.0052936 Eh     change       -0.3328422E-03 Eh
 * total energy  :    -9.0056241 Eh     change       -0.3305505E-03 Eh
 * total energy  :    -9.0060150 Eh     change       -0.3908973E-03 Eh
 * total energy  :    -9.0060999 Eh     change       -0.8490362E-04 Eh
 * total energy  :    -9.0061997 Eh     change       -0.9978341E-04 Eh
 * total energy  :    -9.0061871 Eh     change        0.1260724E-04 Eh
 * total energy  :    -9.0062154 Eh     change       -0.2832744E-04 Eh
 * total energy  :    -9.0062159 Eh     change       -0.4676607E-06 Eh
   *** GEOMETRY OPTIMIZATION CONVERGED AFTER 15 ITERATIONS ***

 final structure:
================
3
 xtb: 6.6.1 (8d0f1dd)
O            3.36002018865568       -2.51119126390776        2.05710677293923
Cl           3.74098601212646       -1.34153272358269        4.47916090070180
H            3.20818048405448       -2.93402804510843        1.20795493702084

          :  Hamiltonian                  GFN2-xTB          :
         :: total energy              -9.006215904578 Eh    ::
         :: gradient norm              0.000546687058 Eh/a0 ::
         :: HOMO-LUMO gap              0.006201099433 eV    ::
         :: SCC energy                -9.022841811710 Eh    ::
         :: -> dispersion             -0.000541413932 Eh    ::
         :: repulsion energy           0.016625928091 Eh    ::

    * Orbital Energies and Occupations

         #    Occupation            Energy/Eh            Energy/eV
      -------------------------------------------------------------
         1        2.0000           -1.0736060             -29.2143
         2        2.0000           -0.6781747             -18.4541
         3        1.9957           -0.5580672             -15.1858
         4        1.6724           -0.4724685             -12.8565
         5        1.6723           -0.4724652             -12.8564
         6        1.5616           -0.4656290             -12.6704
         7        1.5511           -0.4650546             -12.6548 (HOMO)
         8        1.5469           -0.4648267             -12.6486 (LUMO)
         9                         -0.0139368              -0.3792
        10                         -0.0139368              -0.3792
        11                         -0.0121884              -0.3317
        12                         -0.0121883              -0.3317
        13                         -0.0118677              -0.3229
        14                          0.1503602               4.0915
      -------------------------------------------------------------
                  HL-Gap            0.0002279 Eh            0.0062 eV

     #   Z          covCN         q      C6AA      α(0)
     1   8 O        0.808    -0.427    22.245     6.322
     2  17 Cl       0.003     0.119    89.418    14.391
     3   1 H        0.805     0.307     0.699     1.313

Wiberg/Mayer (AO) data.
largest (>0.10) Wiberg bond orders for each atom

     #   Z sym  total        # sym  WBO       # sym  WBO       # sym  WBO
 ---------------------------------------------------------------------------
     1   8 O    0.910 --     3 H    0.897
     2  17 Cl   0.013
     3   1 H    0.897 --     1 O    0.897
 ---------------------------------------------------------------------------

molecular dipole:
                 x           y           z       tot (Debye)
 q only:       -0.002       0.018       0.053
   full:       -0.065      -0.166      -0.324       0.939

           -------------------------------------------------
          | TOTAL ENERGY               -9.006215904578 Eh   |
          | GRADIENT NORM               0.000546687058 Eh/α |
          | HOMO-LUMO GAP               0.006201099433 eV   |
           -------------------------------------------------

 * finished run on 2025/04/07 at 09:40:48.841
