   * xtb version 6.6.1 (8d0f1dd) compiled by 'stahn@M-Bot' on 2023-08-01
          program call               : xtb 249.xyz --input 249.inp --opt

   ID    Z sym.   atoms
    1    8 O      1
    2   17 Cl     2
    3    1 H      3

          :  Hamiltonian                  GFN2-xTB          :
 * total energy  :    -9.0001228 Eh     change       -0.1547189E-09 Eh
 * total energy  :    -9.0028180 Eh     change       -0.2695250E-02 Eh
 * total energy  :    -9.0031043 Eh     change       -0.2862832E-03 Eh
 * total energy  :    -9.0031393 Eh     change       -0.3501267E-04 Eh
 * total energy  :    -9.0031474 Eh     change       -0.8064124E-05 Eh
 * total energy  :    -9.0031592 Eh     change       -0.1187179E-04 Eh
 * total energy  :    -9.0031769 Eh     change       -0.1764126E-04 Eh
 * total energy  :    -9.0031906 Eh     change       -0.1369738E-04 Eh
 * total energy  :    -9.0032251 Eh     change       -0.3451573E-04 Eh
 * total energy  :    -9.0023611 Eh     change        0.8639761E-03 Eh
 * total energy  :    -9.0431561 Eh     change       -0.3168622E-01 Eh
 * total energy  :    -8.8945576 Eh     change        0.1485985E+00 Eh
 * total energy  :    -9.0525446 Eh     change       -0.1579870E+00 Eh
 * total energy  :    -9.0488526 Eh     change        0.3692017E-02 Eh
 * total energy  :    -9.0639927 Eh     change       -0.1514013E-01 Eh
 * total energy  :    -9.0647800 Eh     change       -0.7872750E-03 Eh
 * total energy  :    -9.0648649 Eh     change       -0.8489419E-04 Eh
 * total energy  :    -9.0648701 Eh     change       -0.5235097E-05 Eh
 * total energy  :    -9.0648735 Eh     change       -0.3326633E-05 Eh
   *** GEOMETRY OPTIMIZATION CONVERGED AFTER 41 ITERATIONS ***

 final structure:
================
3
 xtb: 6.6.1 (8d0f1dd)
O            3.79131008230282       -2.33527158710818        2.25153682368024
Cl           3.91798374840780       -1.73186469666838        3.84340515126385
H            3.89280548659529       -3.29300581199301        2.31499519256664

          :  Hamiltonian                  GFN2-xTB          :
         :: total energy              -9.064873454156 Eh    ::
         :: gradient norm              0.000572653181 Eh/a0 ::
         :: HOMO-LUMO gap              4.353383870051 eV    ::
         :: SCC energy                -9.081505463101 Eh    ::
         :: -> dispersion             -0.000594283367 Eh    ::
         :: repulsion energy           0.016632008414 Eh    ::

    * Orbital Energies and Occupations

         #    Occupation            Energy/Eh            Energy/eV
      -------------------------------------------------------------
         1        2.0000           -1.0752194             -29.2582
         2        2.0000           -0.7091441             -19.2968
         3        2.0000           -0.5983236             -16.2812
         4        2.0000           -0.5548630             -15.0986
         5        1.9998           -0.5214367             -14.1890
         6        1.9895           -0.4478611             -12.1869
         7        1.9756           -0.4317803             -11.7493 (HOMO)
         8        0.0351           -0.2717964              -7.3960 (LUMO)
         9                         -0.0111720              -0.3040
        10                         -0.0109191              -0.2971
        11                         -0.0087529              -0.2382
        12                         -0.0007606              -0.0207
        13                          0.1034931               2.8162
        14                          0.1353473               3.6830
      -------------------------------------------------------------
                  HL-Gap            0.1599839 Eh            4.3534 eV

     #   Z          covCN         q      C6AA      α(0)
     1   8 O        1.733    -0.376    20.368     6.094
     2  17 Cl       0.931     0.052    97.643    15.117
     3   1 H        0.808     0.324     0.652     1.268

Wiberg/Mayer (AO) data.
largest (>0.10) Wiberg bond orders for each atom

     #   Z sym  total        # sym  WBO       # sym  WBO       # sym  WBO
 ---------------------------------------------------------------------------
     1   8 O    1.907 --     2 Cl   1.016     3 H    0.891
     2  17 Cl   1.019 --     1 O    1.016
     3   1 H    0.894 --     1 O    0.891
 ---------------------------------------------------------------------------

molecular dipole:
                 x           y           z       tot (Debye)
 q only:        0.075      -0.527       0.195
   full:        0.083      -0.558       0.245       1.564

           -------------------------------------------------
          | TOTAL ENERGY               -9.064873454156 Eh   |
          | GRADIENT NORM               0.000572653181 Eh/α |
          | HOMO-LUMO GAP               4.353383870051 eV   |
           -------------------------------------------------

 * finished run on 2025/04/07 at 09:40:48.986
