 Gaussian 16, Revision A.03,
 Gaussian 16:  EM64L-G16RevA.03 25-Dec-2016

 --------------------------------------------------------------------
 #opt=(noeigen,calcfc,ts,recalc=5,maxcyc=200) freq B3LYP/SVP em=GD3BJ
 --------------------------------------------------------------------

 ----------
 ts-520.gjf
 ----------
 Symbolic Z-matrix:
 Charge =  0 Multiplicity = 1

 SCF Done:  E(RB3LYP) =  -535.589963048     A.U. after   31 cycles
 SCF Done:  E(RB3LYP) =  -535.589464099     A.U. after   18 cycles
 SCF Done:  E(RB3LYP) =  -535.589909087     A.U. after   19 cycles
 SCF Done:  E(RB3LYP) =  -535.591612340     A.U. after   13 cycles
 SCF Done:  E(RB3LYP) =  -535.593088583     A.U. after   14 cycles
 SCF Done:  E(RB3LYP) =  -535.594234839     A.U. after   14 cycles
 SCF Done:  E(RB3LYP) =  -535.594540676     A.U. after   14 cycles
 SCF Done:  E(RB3LYP) =  -535.594653201     A.U. after   14 cycles
 SCF Done:  E(RB3LYP) =  -535.594581326     A.U. after   16 cycles
 SCF Done:  E(RB3LYP) =  -535.594579438     A.U. after   13 cycles
 SCF Done:  E(RB3LYP) =  -535.594579386     A.U. after    8 cycles
 Optimization completed.
    -- Stationary point found.
 Normal termination of Gaussian 16 at Thu Mar  6 16:37:51 2025.

 ---------------------------------------------------------------
 #N Geom=AllCheck Guess=TCheck SCRF=Check GenChk RB3LYP/SVP Freq
 ---------------------------------------------------------------

 Structure from the checkpoint file:  "/tmp/Gau-16266.chk"
 ----------
 ts-520.gjf
 ----------
 Charge =  0 Multiplicity = 1

                         Standard orientation:
 ---------------------------------------------------------------------
 Center     Atomic      Atomic             Coordinates (Angstroms)
 Number     Number       Type             X           Y           Z
 ---------------------------------------------------------------------
      1          8           0        0.032819    1.732671    0.000000
      2         17           0        0.032819   -0.945907   -0.000000
      3          1           0       -0.820478    2.219055    0.000000
 ---------------------------------------------------------------------

 SCF Done:  E(RB3LYP) =  -535.594579386     A.U. after    1 cycles

 The electronic state is 1-A'.
 Alpha  occ. eigenvalues -- -101.51667 -19.20761  -9.46719  -7.24011  -7.22491
 Alpha  occ. eigenvalues --   -7.22442  -0.97004  -0.78298  -0.46508  -0.34896
 Alpha  occ. eigenvalues --   -0.32212  -0.31124  -0.28409
 Alpha virt. eigenvalues --   -0.26993   0.04804   0.45344   0.54901   0.72306
 Alpha virt. eigenvalues --    0.76108   0.76579   0.76831   0.78065   0.82975
 Alpha virt. eigenvalues --    0.83642   0.85138   0.91206   0.91916   1.03730

 Mulliken charges:
               1
     1  O   -0.151325
     2  Cl  -0.033468
     3  H    0.184793
 Sum of Mulliken charges =   0.00000

 Dipole moment (field-independent basis, Debye):
    X=             -1.4819    Y=              1.3541    Z=             -0.0000  Tot=              2.0074
 Quadrupole moment (field-independent basis, Debye-Ang):
   XX=            -17.3378   YY=            -15.2510   ZZ=            -16.0025
   XY=             -3.5514   XZ=             -0.0000   YZ=             -0.0000

  Exact polarizability:  10.531  -4.039  55.638  -0.000   0.000   8.359
 Approx polarizability:  13.342  -5.490 506.869   0.000   0.000  12.689

 ******    1 imaginary frequencies (negative Signs) ******

                      1                      2                      3
                     A'                     A'                     A'
 Frequencies --   -258.1045               201.4474              3668.2964
 Red. masses --      1.1252                 9.2008                 1.0671
 Frc consts  --      0.0442                 0.2200                 8.4600
 IR Inten    --    102.7828                 1.1010                81.8217

 - Thermochemistry -
 -------------------
 Temperature   298.150 Kelvin.  Pressure   1.00000 Atm.
 Atom     1 has atomic number  8 and mass  15.99491

 Molecular mass:    51.97159 amu.
 Principal axes and moments of inertia in atomic units:
                           1         2         3
     Eigenvalues --     2.40519 300.42586 302.83105
           X           -0.02349   0.99972  -0.00000
           Y            0.99972   0.02349  -0.00000
           Z            0.00000   0.00000   1.00000
 This molecule is an asymmetric top.
 Rotational symmetry number  1.
 Rotational temperatures (Kelvin)     36.01125     0.28830     0.28601
 Rotational constants (GHZ):         750.35268     6.00728     5.95956
    1 imaginary frequencies ignored.
 Zero-point vibrational energy      23146.2 (Joules/Mol)
                                    5.53208 (Kcal/Mol)
 Warning -- explicit consideration of   1 degrees of freedom as
           vibrations may cause significant error
 Vibrational temperatures:    289.84  5277.86
          (Kelvin)

 Zero-point correction=                           0.008816 (Hartree/Particle)
 Thermal correction to Energy=                    0.012207
 Thermal correction to Enthalpy=                  0.013151
 Thermal correction to Gibbs Free Energy=        -0.015313
 Sum of electronic and zero-point Energies=           -535.585763
 Sum of electronic and thermal Energies=              -535.582372
 Sum of electronic and thermal Enthalpies=            -535.581428
 Sum of electronic and thermal Free Energies=         -535.609892

                     E (Thermal)             CV                S
                      KCal/Mol        Cal/Mol-Kelvin    Cal/Mol-Kelvin
 Total                    7.660              7.799             59.907
 Electronic               0.000              0.000              0.000
 Translational            0.889              2.981             37.767
 Rotational               0.889              2.981             20.020
 Vibrational              5.883              1.838              2.120
 Vibration     1          0.638              1.838              2.120

 Optimization completed.
    -- Stationary point found.
 Normal termination of Gaussian 16 at Thu Mar  6 16:37:53 2025.
